Written by MDAnalysis
   56
    11DUM    Au    1   0.000   0.000   1.000
    11DUM    Au    2   0.288   0.000   1.000
    11DUM    Au    3   0.577   0.000   1.000
    11DUM    Au    4   0.865   0.000   1.000
    11DUM    Au    5   0.000   0.288   1.000
    11DUM    Au    6   0.288   0.288   1.000
    11DUM    Au    7   0.577   0.288   1.000
    11DUM    Au    8   0.865   0.288   1.000
    11DUM    Au    9   0.000   0.577   1.000
    11DUM    Au   10   0.288   0.577   1.000
    11DUM    Au   11   0.577   0.577   1.000
    11DUM    Au   12   0.865   0.577   1.000
    11DUM    Au   13   0.000   0.865   1.000
    11DUM    Au   14   0.288   0.865   1.000
    11DUM    Au   15   0.577   0.865   1.000
    11DUM    Au   16   0.865   0.865   1.000
    11DUM    Ne   17   0.000   0.000   2.500
    11DUM    Ne   18   0.313   0.000   2.500
    11DUM    Ne   19   0.626   0.000   2.500
    11DUM    Ne   20   0.940   0.000   2.500
    11DUM    Ne   21   0.000   0.313   2.500
    11DUM    Ne   22   0.313   0.313   2.500
    11DUM    Ne   23   0.626   0.313   2.500
    11DUM    Ne   24   0.940   0.313   2.500
    11DUM    Ne   25   0.000   0.626   2.500
    11DUM    Ne   26   0.313   0.626   2.500
    11DUM    Ne   27   0.626   0.626   2.500
    11DUM    Ne   28   0.940   0.626   2.500
    11DUM    Ne   29   0.000   0.940   2.500
    11DUM    Ne   30   0.313   0.940   2.500
    11DUM    Ne   31   0.626   0.940   2.500
    11DUM    Ne   32   0.940   0.940   2.500
    2SOL     OW   33   0.134   1.055   1.700
    2SOL    HW1   34   0.177   1.024   1.615
    2SOL    HW2   35   0.132   1.155   1.702
    3SOL     OW   36   0.580   0.427   1.723
    3SOL    HW1   37   0.535   0.516   1.714
    3SOL    HW2   38   0.511   0.355   1.730
    4SOL     OW   39  -0.001   0.903   1.892
    4SOL    HW1   40  -0.060   0.871   1.966
    4SOL    HW2   41   0.089   0.861   1.901
    5SOL     OW   42   0.733   0.211   1.670
    5SOL    HW1   43   0.774   0.300   1.691
    5SOL    HW2   44   0.696   0.171   1.754
    6SOL     OW   45   0.462   0.592   1.279
    6SOL    HW1   46   0.436   0.545   1.195
    6SOL    HW2   47   0.382   0.600   1.339
    7SOL     OW   48   0.022   0.308   1.612
    7SOL    HW1   49   0.119   0.325   1.592
    7SOL    HW2   50   0.010   0.212   1.638
    8SOL     OW   51   0.048   0.597   1.687
    8SOL    HW1   52   0.146   0.614   1.682
    8SOL    HW2   53   0.032   0.503   1.716
    9SOL     OW   54   0.915   0.476   1.830
    9SOL    HW1   55   0.829   0.430   1.854
    9SOL    HW2   56   0.988   0.409   1.825
   1.15400   1.15400   3.50000
